<?xml version="1.0" encoding="UTF-8"?>

<!-- generated on 2024-07-15 17:36:07 by Eclipse SUMO sumo Version 1.19.0
<configuration xmlns:xsi="http://www.w3.org/2001/XMLSchema-instance" xsi:noNamespaceSchemaLocation="http://sumo.dlr.de/xsd/sumoConfiguration.xsd">

    <input>
        <net-file value="C:\Users\Pichau\Desktop\Faculdade\UFC\BOLSA\2024Project\2024-07-15-17-35-13\osm.net.xml.gz"/>
        <route-files value="C:\Users\Pichau\Desktop\Faculdade\UFC\BOLSA\2024Project\2024-07-15-17-35-13\trips.trips.xml"/>
        <additional-files value="C:\Users\Pichau\Desktop\Faculdade\UFC\BOLSA\2024Project\2024-07-15-17-35-13\osm_stops.add.xml"/>
    </input>

    <output>
        <vehroute-output value="C:\Users\Pichau\Desktop\Faculdade\UFC\BOLSA\2024Project\2024-07-15-17-35-13\vehroutes.xml"/>
        <stop-output value="C:\Users\Pichau\Desktop\Faculdade\UFC\BOLSA\2024Project\2024-07-15-17-35-13\stopinfos.xml"/>
    </output>

    <time>
        <begin value="0.0"/>
    </time>

    <processing>
        <ignore-route-errors value="true"/>
    </processing>

    <routing>
        <device.rerouting.adaptation-interval value="0"/>
    </routing>

    <report>
        <aggregate-warnings value="5"/>
        <error-log value="C:\Users\Pichau\Desktop\Faculdade\UFC\BOLSA\2024Project\2024-07-15-17-35-13\trips.trips.xml.errorlog"/>
        <no-step-log value="true"/>
    </report>

</configuration>
-->

<routes xmlns:xsi="http://www.w3.org/2001/XMLSchema-instance" xsi:noNamespaceSchemaLocation="http://sumo.dlr.de/xsd/routes_file.xsd">
    <vehicle id="0_subway_Sul:0" type="pt_subway" depart="15.00" departLane="0" arrival="413.00">
        <route edges="24302361"/>
        <stop busStop="4102886828" duration="30.00"/>
        <stop busStop="6943844384" duration="30.00"/>
        <stop busStop="6943871010" duration="30.00"/>
        <stop busStop="6943871013" duration="30.00"/>
        <stop busStop="6943871025" duration="30.00"/>
    </vehicle>

    <vehicle id="1_subway_Sul:1" type="pt_subway" depart="383.00" departLane="0" arrival="787.00">
        <route edges="-741761106"/>
        <stop busStop="-2865636521" duration="30.00"/>
        <stop busStop="-8984214502" duration="30.00"/>
        <stop busStop="-7085050924" duration="30.00"/>
        <stop busStop="-2865636511" duration="30.00"/>
        <stop busStop="4102886827" duration="30.00"/>
    </vehicle>

</routes>
